<?xml version="1.0" encoding="UTF-8"?>
<VTKFile type="UnstructuredGrid" version="0.1" byte_order="LittleEndian">
<UnstructuredGrid>
<Piece NumberOfPoints="29043" NumberOfCells="58256">
<PointData>
<DataArray type="Float64" Name="Color" Format="ascii">
43.03192366694418
43.85533631343321
43.038691051551666
43.86903807055808
42.97879370817208
43.72700606397245
43.83922401475013
42.979734257223186
43.9934076074162
44.52366768163796
42.619948028922636
42.582426047451975
43.552764632774426
42.54917765062015
41.562016761046834
40.05004888380665
42.04183515521282
41.30997772836639
38.503186621746124
40.579629692259516
41.25814582321442
39.18075866548503
40.43112471264362
41.55352068995336
42.18553004567326
43.49325478348294
42.58503555104937
42.29224059889384
43.484359487015354
42.27928357549541
43.56737186691754
42.28769854999581
43.667560458569085
42.29158755794555
43.67658631372666
42.29237442721603
43.67767988953784
42.2926609109885
43.67782260312856
41.58188868045664
38.77449095708249
42.18553004403924
40.43112468929763
41.45249021880318
37.99981258726905
41.82002760581861
42.332301194726256
41.412280161703904
37.84816333675815
41.73782072272684
42.133208828498084
42.585035508221836
41.40217980281841
37.682394439593736
41.715581831517454
42.06334208126276
41.401105090960755
37.671071029434415
41.71039091379771
42.04455046835892
41.40308299857139
37.85816484925124
41.70949547748637
42.04026989786922
41.40370747829979
37.887826744362144
41.709628737945195
42.03957748067688
41.402271252489356
37.711696279266675
41.709642268679204
42.03960516862179
41.401402220327554
37.69922566000122
41.709401478379675
42.03962285405754
41.40110004330205
37.79058944293655
41.70944773986707
42.039524791416795
41.400700393780824
37.6854030817662
41.70963341515608
42.039520557258925
41.402187143299955
37.79155941434453
41.70952333393495
42.03958612519119
41.404505138419836
37.83587794612117
41.70957049517955
42.03953203878831
41.40238846280363
37.79757887857653
41.70960569925319
42.039604119697856
41.40095670688294
37.69143909890721
41.70958183938711
42.03959952249909
41.401233754972225
37.794227347107096
41.70954375168242
42.039611851623306
41.40117226548426
37.69252164514222
41.709668645340685
42.03954428402403
41.40155071401813
37.687797955541384
41.709501894415666
42.03960178869079
41.403169095818214
37.864449921431856
41.709468351776366
42.039535083874796
41.40332814838666
37.872531149444626
41.70972137892613
42.03953751177994
41.401890760340905
37.698626992534344
41.7097238056715
42.03964207540804
41.40145960141882
37.702317459010374
41.709469983990914
42.03964702702683
41.4010680225893
37.79787460782427
41.70950270006074
42.03954218803841
41.399523784097084
37.65783858498105
41.709678771402366
42.03953826124882
41.3987881613794
37.685138811663194
41.70956142749401
42.03960059007795
41.39641171709496
37.61943114365744
41.70958692651516
42.039515583167656
41.391536686374536
37.46333492155958
41.70955827897649
42.039525050231475
41.38768871378562
37.261123505500734
41.70946604286729
42.03947786395156
41.38378771143738
37.18067790656755
41.70924942392486
42.039403635229405
41.38302654348007
37.20178976938138
41.70939627436064
42.039281453775516
41.38334960248875
37.20466709898301
41.70941850763364
42.03920908749143
41.38287090334768
37.154695861850996
41.709400183036735
42.03924215451872
41.38287094925795
37.15469657079353
41.709309800255596
42.039242585205784
41.38334972552707
37.204668099847424
41.70930982202333
42.03919626674002
41.3830266997561
37.20179019744262
41.70940024669352
42.039196271080755
41.383787850051135
37.18067677963353
41.709418608981764
42.039242597604584
41.38768876403225
37.26111820059003
41.70939640986336
42.03924217498371
41.39153660607195
37.46332324255019
41.709249585293776
42.03920911577944
41.39641155911943
37.61941848237393
41.70946622225034
42.03928148843221
41.39878814120357
37.68512865746368
41.709558468202886
42.03940367339044
41.39952391716474
37.65783561441032
41.709587117823844
42.03947790658589
41.40106826498476
37.79787672536037
41.70956161361471
42.039525096240254
41.40145984713081
37.70231973834552
41.70967894284769
42.03951563328695
41.40189093085803
37.69862805761528
41.70950284860146
42.039600640541266
41.403328244886154
37.872531355398735
41.70947010756993
42.039538309083525
41.40316914001846
37.86444902614534
41.70972390474134
42.0395422322095
41.401550743008954
37.68779712855621
41.70972145744469
42.03964706709672
41.40117230481036
37.69252155835488
41.70946841450916
42.03964211060122
41.40123378059343
37.79422722927751
41.709501946388684
42.03953754186193
41.4009566829335
37.69143724640611
41.70966868916878
42.03953510936276
41.40238837836591
37.79757436317408
41.70954379073254
42.03960180891988
41.404505028807705
37.83587271056513
41.70958187562212
42.039544300099635
41.402187087941286
37.79155543074995
41.70960573698056
42.03961186328485
41.400700419809596
37.68540225652907
41.70957053718473
42.03959953325551
41.401100136834884
37.790591010026105
41.70952338324679
42.039604132146735
41.40140234032896
37.699227206456214
41.70963347336169
42.03953205645769
41.402271366302045
37.711697069860065
41.709447806893195
42.03958614887131
41.40370758122077
37.88782687388732
41.70940155506611
42.039520586270726
41.40308309624464
37.85816420155379
41.7096423545143
42.03952482553473
41.40110519673226
37.671070539426466
41.70962883046184
42.03962289262506
41.402179923326
37.68239440202382
41.709495573438176
42.039605210353386
41.41228027216778
37.848163497337566
41.7103910065814
42.03957752389624
41.452490291442984
37.99981273000742
41.71558191427357
42.04026994027737
41.58188870853064
38.77449104820846
41.737820790019725
42.04455050797162
41.82002765624338
42.0633421177713
42.332301234363456
42.13320886373174
43.0319236701111
43.038691054276285
43.85533630678543
43.86903805650678
42.97879371314605
43.72700606180433
43.839224014835
44.52366767996068
43.99340760762476
42.979734254241976
42.61994803581865
42.58242634548816
43.552764603462606
42.54917764612139
41.56201671750949
40.05004896382849
42.041835239670775
41.30997765168388
38.503186576929124
40.57962959414647
41.258145799573924
39.18075857403062
41.55352070179157
43.49325474212782
42.29224058169842
43.4843594060161
42.2792835727156
43.56737186385067
42.28769854950144
43.667560457925504
42.291587557808384
43.67658631360871
42.29237442718909
43.6776798895238
42.292660910975826
43.67782260311793
43.44142603443879
43.44142604113239
43.900738863486595
44.453953480171094
43.8925201774955
44.44769732333987
43.89275339037215
44.448281943751965
43.889903663570465
44.44515225253264
43.88998081186929
44.44533316759322
43.89240907186041
44.44815584038133
43.89246255706871
44.44820497905289
43.88997587072322
44.44530471239534
43.889799254150375
44.44505674346772
43.89227962240284
44.447973261114896
43.890578716042114
44.446416351909136
43.891785051916145
44.44733259667254
43.88981485100584
44.44476281283124
43.89178729110961
44.447332462586814
43.89056941039428
44.44640176857075
43.89226012944647
44.44794822736492
43.88974808020822
44.44500295226186
43.8898949038645
44.445230691215386
43.89234698502901
44.44808010835868
43.89236585277604
44.448101059464705
43.88990910099312
44.445235243170146
43.88975712800931
44.44500373111828
43.892247786719565
44.44794129477225
43.89048624648922
44.44633957478817
43.89156497993372
44.44716214214054
43.88931684019428
44.44441907772142
43.89116668264137
44.446786077703564
43.88989576159156
44.44590298244009
43.891188505854075
44.44692922694833
43.88867181422751
44.444296870412074
43.888860059266904
44.44454489388079
43.89123471874262
44.44707263601839
43.891234716385156
44.44707263261853
43.888860052167956
44.44454488325192
43.888671801885835
44.44429685502445
43.89118848550817
44.44692921172157
43.889895723556265
44.445902970847555
43.891166618948034
44.44678606507489
43.889316763794056
44.44441907362972
43.89156491381806
44.447162141175056
43.89048620051096
44.44633958290001
43.892247754988034
44.447941304025164
43.88975711482374
44.44500372335324
43.88990912088906
44.44523520680127
43.8923658892827
44.44810100008527
43.89234702506701
44.448080047287135
43.88989493675001
44.445230653522685
43.889748090355226
44.44500293873807
43.8922601293296
44.44794823149755
43.890569414387244
44.44640178087593
43.89178728570141
44.4473324821555
43.889814843149225
44.44476283438098
43.89178504630513
44.44733261658462
43.89057871801538
44.44641636762208
43.89227962940481
44.44797327213172
43.88979926097136
44.44505674927183
43.889975874532524
44.44530471468954
43.89246255864316
44.4482049802146
43.892409070111796
44.44815584276677
43.88998080711019
44.44533317412055
43.88990365695389
44.44515226324819
43.89275338568109
44.44828195572347
43.892520177284325
44.44769733187621
43.90073886554421
44.453953483928046
43.10244882490309
39.85934991332243
43.016266720209444
39.18607398049056
43.217259966311246
43.218215999261304
42.99544906632457
39.06927029045511
43.161728160139035
43.17543424874896
42.98338519954126
38.927604782721346
43.14974651056241
43.16446097946101
42.98194620566443
38.91217447039327
43.14357762177161
43.16147394326981
42.99279456961875
39.086557173597726
43.14290900865382
43.161045373271236
42.99436205531009
39.113061853798854
43.14758580729932
43.16171618129715
42.984093003794726
38.94879501078202
43.148445799507556
43.16185074952659
42.98366005448253
38.94230608883487
43.14404469876041
43.161196589674375
42.98860576731897
39.01954296621824
43.14379270434239
43.16117697447345
42.98267871207099
38.91641097791529
43.14607906350852
43.16156440730873
42.9883853227314
39.02144318594321
43.14251053504444
43.16104174381411
42.99240360947692
39.08460189645507
43.14640196071804
43.16161132250198
42.98873016277008
39.027017649678726
43.14759918103874
43.16172609688658
42.98302969833344
38.92185287366135
43.1465762703242
43.16164594539589
42.98881497287027
39.02285374208657
43.14269089252605
43.161087505062994
42.98331959578968
38.93626767279778
43.146213407954804
43.16161587696524
42.98268639387618
38.92511935728885
43.14363805249786
43.16120169964239
42.99300411274493
39.09003262560674
43.14342914371309
43.16117400874998
42.99364164564247
39.100690974749796
43.14784322806332
43.161841978865084
42.98350072053472
38.93898738987764
43.14811331032314
43.16188236125737
42.98403928647076
38.94884879546498
43.14376713511433
43.1612227337277
42.98912785143841
39.029239451753085
43.143951819136646
43.1612492117157
42.980739786698734
38.885658386227135
43.14636110931974
43.1616462310123
42.98112570947245
38.89564742016381
43.14177663624781
43.16097088365939
42.97478796861702
38.79743360050361
43.142994810370965
43.16115481392734
42.96294552417493
38.61145793412851
43.14119279899319
43.16088337604873
42.95234956447496
38.43214264293579
43.13678351845658
43.16029421953556
42.94014206874641
38.23541898390715
43.131485930124654
43.159537615983936
42.94444068284929
38.297746384545235
43.1279775818449
43.159036469240846
42.94582634213958
38.32036504288817
43.12873338514555
43.1591946905271
42.93834548290744
38.2114393363168
43.12892344326917
43.1592175088187
42.93834554273923
38.211440205995416
43.12781694022175
43.15900833583322
42.94582642910507
38.3203661328854
43.12781699267009
43.159008379097315
42.944440725126015
38.297746504613485
43.12892355571836
43.15921763025858
42.94014203047118
38.23541750529563
43.12873353494018
43.159194880540554
42.952349274943856
38.43213684395795
43.127977738589436
43.15903671400872
42.96294476652042
38.61144400005065
43.13148602019601
43.15953789339369
42.974787126355466
38.79741758637431
43.13678342158704
43.160294498285964
42.98112508112757
38.89563520665388
43.14119269760715
43.16088366726268
42.980739680054
38.88565505197266
43.1429947712075
43.161155108545586
42.98912809929675
39.029241911081215
43.14177681747174
43.16097119056377
42.98403953402732
38.94885131682747
43.146361411185524
43.161646524388516
42.983500899527485
38.9389885205573
43.143952092066115
43.16124946231639
42.9936417622265
39.10069122793351
43.14376734834252
43.161222934075795
42.99300412919882
39.09003137470063
43.14811347568178
43.161882513889395
42.98268642127363
38.925118169635084
43.14784332601198
43.16184208814508
42.9833196398107
38.93626748537133
43.143429216449704
43.16117408928238
42.988815015081
39.022853573675434
43.143638122828065
43.161201762164524
42.983029630064436
38.92185124095812
43.146213466358404
43.161615925744
42.988729938151096
39.02701346143954
43.14269088895776
43.16108754004648
42.99240333023249
39.0845970446137
43.14657618318756
43.16164596672155
42.98838512453773
39.021439562479316
43.147599071621755
43.16172611799698
42.98267867881418
38.91641020032222
43.146401885589796
43.16161135259932
42.98860586554537
39.01954431501895
43.14251055839833
43.16104179474735
42.9836601610254
38.9423074283315
43.14607916351815
43.161564477439015
42.98409307649712
38.948795662739485
43.14379281341155
43.16117705543985
42.99436210446402
39.11306193715262
43.144044796861465
43.16119667948658
42.99279458292381
39.08655658760307
43.148445888846084
43.16185084770893
42.9819462315769
38.912174043678306
43.14758588010562
43.16171628485273
42.98338524456375
38.9276047879726
43.142909087139
43.16104548166521
42.995449115771464
39.0692704460356
43.143577708366934
43.161474050579045
43.01626675888974
39.186074103651436
43.14974659278266
43.16446107735237
43.10244884326022
39.85934998491342
43.161728230655285
43.17543433235636
43.2172600252818
43.218216068446736
42.699797722515655
42.66626306630235
42.081139692176805
42.66599561590539
41.93971442942018
39.99156466982731
42.65401855221501
41.93346842024937
39.31063935717617
42.65411642352956
41.88523661056439
39.34022808754389
42.66482947860948
41.88387127378468
39.140110862519236
42.66523483965568
41.938490725145584
39.10634736837221
42.65450897711378
41.94152240371824
39.37492237384032
42.653886762909224
41.88834017471339
39.40200863223049
42.663637224342665
41.88631947755886
39.14317137543429
42.65564224828637
41.922633109962874
39.15381903688592
42.66207692141279
41.88863221957274
39.29627180458226
42.65629322913941
41.91940463707448
39.077622263707724
42.66215293852349
41.91563391667205
39.273555043256806
42.655707884141464
41.920084598277526
39.39049854341994
42.66367179484695
41.88937315661366
39.27915567244622
42.653753891406495
41.92307271146933
39.08271765708707
42.654165086572334
41.885405034326084
39.2996285729302
42.6648462159431
41.885298047708204
39.1483330841794
42.66495979903726
41.938919442437
39.11737501253003
42.65433790328814
41.93977169193158
39.37810439011105
42.65390505891111
41.887099642012174
39.39095147334382
42.66364630175519
41.88701631471736
39.13520857429222
42.65512207022016
41.9230502213797
39.16417585055689
42.66043146490648
41.88408789689208
39.30741397126121
42.65243658163723
41.90323052314693
39.044999715799236
42.6574588536223
41.87863324037181
39.13356755369
42.64981029715915
41.87537557775852
39.02599875378854
42.65571903864105
41.829479004181906
38.81020024035428
42.64497346582874
41.84683833972207
38.575000604630134
42.64564617584642
41.800228929447826
38.41200574887034
42.655935725169854
41.802850292728465
38.345930141497774
42.655935729756266
41.85045614378856
38.38183179843281
42.64564618281281
41.85045620994407
38.426008002799506
42.644973455847605
41.80285041373878
38.42600890947767
42.65571900208846
41.800228932952336
38.38183292477902
42.64981019413506
41.846838140954446
38.34592991798547
42.657458657943266
41.8294782072615
38.41200399664723
42.652436326324846
41.87537399092855
38.57499444339243
42.66043128220241
41.878631120642524
38.81018413644972
42.65512197931463
41.903229092520974
39.025978241112284
42.66364628272896
41.884087348989226
39.133553354637684
42.65390507440907
41.92305029684684
39.04499579857725
42.65433794760287
41.887016566553314
39.30741634364904
42.6649598512185
41.88709982664085
39.16417854889056
42.66484625959913
41.939771847733425
39.1352099031356
42.654165119429365
41.93891949153283
39.39095176650744
42.653753903926486
41.885297965330835
39.3781029106716
42.66367179572529
41.88540503741763
39.117373707301454
42.65570786559971
41.92307270672785
39.148332745617324
42.66215289025587
41.889372983285
39.29962841554163
42.65629316706094
41.920084187235204
39.082716187388314
42.662076878449284
41.915633385871104
39.27915189736143
42.655642237087136
41.91940428230049
39.390493843960314
42.66363723663295
41.88863212710913
39.27355179860024
42.65388678092364
41.92263321274271
39.07762160199337
42.654508988723876
41.88631962213583
39.2962730241955
42.66523484289826
41.88834025368749
39.15382031727654
42.66482947250245
41.94152241032572
39.14317196635977
42.65411641258049
41.93849067045022
39.4020087002948
42.65401854173194
41.883871202495754
39.37492181267919
42.665995607946684
41.88523656275129
39.10634681768141
42.666263064187945
41.93346839079186
39.140110608247994
42.699797725095664
41.93971441986315
39.34022796584753
42.08113970565347
39.310639384340675
39.99156476822748
38.986635614515876
40.45617957317984
38.0945333850695
39.80018524216962
38.093438073052255
39.940769859490786
37.788654907777925
39.68902711001584
37.76050069795451
39.64928104080133
38.10730789869382
39.93337794935633
38.158600476350955
39.975456630426834
37.815365791553575
39.69275905293523
37.812164109500145
39.70793088740879
38.04281660995042
39.91101494808373
37.77843140274268
39.599071504395965
37.999862903372104
39.8607441790694
38.01687927022829
39.91667115943011
38.0079719307538
39.8664926768771
37.78527640693267
39.60375889620269
38.047653398500984
39.91467571952734
37.80525933762544
39.703563554468985
37.78732620844954
39.67135780888526
38.12476791182206
39.951506462757095
38.133668260828415
39.953918516701094
37.79295029665951
39.67436973699574
37.809756648110636
39.70581717934033
38.05160053185108
39.91469342940212
37.76330158385275
39.595432764030875
37.93201419896923
39.841791451926554
37.918120967792106
39.869622817733216
37.7578752700619
39.79854769633823
37.52199233926143
39.52552934450648
37.56730577999724
39.80126941319588
37.57593129449327
39.59881661398771
37.54813149735861
39.56995151370779
37.59890137541532
39.82596112127146
37.598902306614036
39.82596153030687
37.54813222135516
39.5699518736655
37.57593147972926
39.5988165773893
37.56730457350079
39.80126899560361
37.521988479321124
39.52552752807429
37.75786502586425
39.79854317814255
37.918112751394005
39.86961776235535
37.93200563462301
39.841787813560586
37.76329975498561
39.59543199956738
38.05160313903394
39.914694823801824
37.8097584469528
39.705818271022736
37.792951084086496
39.67437013737435
38.13366866701813
39.95391859431885
38.12476714784884
39.95150620676867
37.78732584793556
39.67135764706285
37.80525940369591
39.70356369086568
38.04765334957273
39.914675797793564
37.78527409872754
39.603757272115445
38.007965038894724
39.86648758058402
38.016871999550915
39.91666564756014
37.999857030880605
39.8607399255759
37.77843040353349
39.59907081565564
38.04281916933343
39.911016878817804
37.81216618348077
39.70793244572616
37.81536677254837
39.69275974565386
38.15860070902028
39.97545682583876
38.10730675595755
39.93337705713884
37.7604999129216
39.64928038771018
37.78865469283596
39.689026909879146
38.09343806975437
39.94076982241984
38.094533501614876
39.8001852756409
38.986635791009064
40.456179700378186
42.781611452810125
42.79199034517404
42.76729001391476
42.78016606481094
42.701299305076645
42.76470358309297
42.77787836173718
42.666217403007636
42.194108170938364
42.76298266108603
42.77693644952416
42.664366302182486
42.01062611373101
42.76291487299187
42.776864372153284
42.65429453805501
42.05628565324531
42.76431073256674
42.77729019236756
42.65382842827796
41.950098915212834
42.76444407358116
42.777325691765554
42.665329920265094
41.94401985645686
42.76311235148074
42.77690843470543
42.66644717502754
42.0614459104475
42.762983482284426
42.7768591354573
42.65539972664658
42.07119612591208
42.76379573621597
42.77714595396577
42.65496959907097
41.95528125021406
42.76305964055638
42.776923941745906
42.66222412657049
41.9550655659761
42.76384381374788
42.77716716693368
42.65459385384759
42.047475605725424
42.76380009056322
42.77707968888103
42.66153998446214
41.95494261859096
42.763876884731246
42.777181295207356
42.661460745794784
42.02630892494875
42.76310288814818
42.77694586681139
42.6617430137685
42.00383877736084
42.76383364943541
42.7771708353668
42.65481174340783
42.02778169643642
42.76297876721418
42.77687610254634
42.66237914363677
41.95626957070692
42.763045524460836
42.77691334678525
42.65479051984045
42.04848529698978
42.76439055401778
42.77733597029339
42.65468348644271
41.95386063972751
42.76439502362939
42.77733752522204
42.665786716966636
41.94993932528399
42.763053733825075
42.77691663336742
42.66582388029212
42.06556899832634
42.76298655947079
42.776880265176715
42.65474264235013
42.06593893646709
42.76383559872852
42.77717462848523
42.654835204686606
41.95045160954123
42.763087561874045
42.77694674025389
42.66236666561389
41.95422445476697
42.76383666051777
42.7771781711653
42.654635682248966
42.048398350489094
42.76374176744366
42.77707540074084
42.66130488198149
41.9547532695064
42.76377915707582
42.777164709962335
42.66077290227474
42.02371240980335
42.76298352993865
42.77692224443507
42.66071083304007
41.99685463031551
42.763685860842145
42.77713964739354
42.65358712851946
42.01750065272773
42.762828140956344
42.77684247903056
42.660820817223396
41.94422135091082
42.762891763797484
42.7768774909095
42.65324162649239
42.03229016492958
42.76421577752404
42.77729493943298
42.653139402492286
41.9380861062815
42.76421577311629
42.77729493456388
42.66401204485766
41.93448918591429
42.76289174990882
42.77687747640999
42.66401204456446
42.04744967855868
42.76282811663981
42.776842454885355
42.653139396173856
42.04744973166743
42.76368582559985
42.77713961413343
42.653241603769175
41.934489240527
42.76298348269995
42.77692220313202
42.66082076923823
41.93808608697776
42.76377909921473
42.77716466280839
42.65358703299336
42.03229005377625
42.76374170665872
42.777075352308486
42.660710676092776
41.94422090530111
42.763836606721156
42.777178126097226
42.66077273142059
42.01749968862134
42.76308752171809
42.77694670281943
42.66130474810035
41.996853547945705
42.76383557279445
42.77717460010001
42.65463562385838
42.023711635774646
42.76298654243385
42.77688024519932
42.66236666740372
41.95475306981268
42.76305372258827
42.77691662092428
42.65483521622127
42.048398607341994
42.76439501783915
42.77733751927451
42.65474264180125
41.954224676780655
42.76439055294122
42.777335969251
42.66582387153619
41.95045167811537
42.763045526409485
42.77691334835623
42.665786711146154
42.06593891118081
42.76297877019499
42.776876104639655
42.654683488627825
42.06556894136531
42.76383364951204
42.77717083585725
42.654790528579895
41.94993930978501
42.76310287871644
42.77694586320462
42.66237914087736
41.953860684289964
42.76387686223717
42.77718128638173
42.65481168129088
42.04848530257135
42.76380006261019
42.777079677161055
42.66174286024216
41.956269141322366
42.76384379068435
42.77716715541152
42.661460564515664
42.027780520845226
42.763059628463225
42.776923932543525
42.66153985172912
42.00383741292467
42.76379573290325
42.777145947156214
42.654593818619446
42.026307948014164
42.76298348143246
42.7768591302945
42.66222416302031
41.95494243018396
42.763112350403674
42.776908430768856
42.654969640283355
42.04747599668639
42.764444070405716
42.77732568754192
42.65539974909689
41.95506593901541
42.76431072419456
42.77729018538156
42.666447176985116
41.95528142994942
42.7629148602681
42.776864361759294
42.66532989347826
42.07119615261786
42.762982647031265
42.776936437203915
42.65382839546555
42.061445718136156
42.76470357054211
42.777878350210074
42.65429451426951
41.944019678302766
42.7672900050307
42.78016605611157
42.66436628845338
41.9500988421172
42.78161144789772
42.79199034054142
42.666217394350724
42.05628562315451
42.70129930300806
42.01062611857702
42.19410821006642
43.69630286439292
43.677419431276405
43.396347358674575
43.68211066546911
43.29338423296076
41.96044886201196
43.66598680816634
43.36133279493771
41.09004905718706
43.66690341777695
43.22699142086839
41.92145379262348
43.68188859721255
43.232871223017014
40.73689533596405
43.68226320455352
43.35983100849819
40.75254510482654
43.66702644978392
43.36352586782925
41.86246566467963
43.66586306758495
43.23453139640225
41.89991459376387
43.68101892448243
43.227245923427404
40.77083680206641
43.67233921370678
43.35727113843649
40.742938855111845
43.677875076441296
43.27064448531138
41.90157894023395
43.66513567087475
43.3296077560621
40.955599948168924
43.67793081224676
43.22565989142862
41.63350065106022
43.672363691246574
43.330202372911174
40.80731150115423
43.68103264410496
43.27101058770427
41.63930257428484
43.66575827761852
43.35768950196541
40.95876737491466
43.66683657317117
43.226749388577105
41.90590265664622
43.68187238467408
43.23325511991186
40.73945774375187
43.682017126775634
43.3605425026002
40.75768296387332
43.66691701924316
43.361996700617226
41.87115462265325
43.66583356652575
43.23413296611727
41.88634746994012
43.68107188988404
43.227606322016925
40.76739121948805
43.67203885645148
43.358367948779005
40.74854250909323
43.67685074704525
43.268503572647376
41.91422861928527
43.66287632316204
43.320814140637935
40.93767241221195
43.67427171678793
43.20469143087337
41.55442507360499
43.66887711803395
43.29625906605111
40.59467798798721
43.674060992960335
43.24031533142869
41.30740346004819
43.66077476351995
43.29133719580261
40.67343816879253
43.66201035607463
43.18023286669148
41.24294485791785
43.674802477936225
43.18915685175381
40.27253086168457
43.674802480032895
43.29430215664814
40.32944624253764
43.66201034877503
43.29430221894779
41.219977107820625
43.660774741858006
43.18915690749094
41.219977838133445
43.67406095982682
43.1802328256793
40.32944691922211
43.66887706890719
43.291337029558065
40.272530665968475
43.67427161058674
43.24031494065247
41.24294349679144
43.66287623670604
43.296257932564004
40.67343457724098
43.67685067628412
43.204690328646564
41.30739203046846
43.67203885720835
43.32081319917444
40.59466657315369
43.68107192316154
43.26850336134737
41.5544155205651
43.66583358096608
43.35836821163929
40.93767023452904
43.66691696974374
43.22760651068876
41.914230471257156
43.68201702247251
43.234132952380435
40.748544507563565
43.68187227115493
43.36199636676076
40.767391987323606
43.66683650646297
43.36054202430944
41.88634681245003
43.66575826049939
43.233254972440534
41.87115274943528
43.681032640221986
43.226749353678656
40.75768235905025
43.6723636968934
43.357689494541546
40.73945799836281
43.67793081243184
43.27101049508707
41.90590262892567
43.665135675484464
43.330202152820505
40.95876664067947
43.67787508317463
43.22565968025248
41.63930021864269
43.67233922901835
43.329607573614055
40.807308949522564
43.68101894530929
43.2706444651098
41.63349850251109
43.66586308093872
43.357271236816416
40.95559959517675
43.667026457937084
43.22724600012202
41.90157984440742
43.68226321051867
43.23453144103712
40.74293955796992
43.681888595211376
43.36352588289583
40.770837156144864
43.66690342431281
43.359830955151835
41.89991477674391
43.66598682358921
43.23287120002345
41.86246501859404
43.6821106815687
43.22699143498846
40.75254478821273
43.677419441868324
43.36133281585745
40.73689535107212
43.696302871233286
43.29338424440374
41.92145386317969
43.39634737711464
41.09004908394866
41.96044904248896
43.32337097588885
43.290161023921144
43.28164293067482
43.27975387733409
43.279442397901505
43.27940877632403
43.279405338769664
43.27939740004143
43.279396134428225
43.27939926145069
43.27939657186175
43.27940086493379
43.279402645358914
43.279401427285734
43.27939739077533
43.27940010782498
43.27939650399418
43.27939696375728
43.279404557252235
43.279404988501994
43.27939768411318
43.27939725849944
43.279400453859694
43.27939537033285
43.27939489355447
43.279391735234526
43.279384051132354
43.279373954280516
43.279368296147766
43.279369534039915
43.27936961876952
43.27936709207745
43.279367091859626
43.27936961807427
43.27936953279635
43.2793682943755
43.27937395189741
43.279384048077134
43.27939173231806
43.27939489098043
43.279395368790745
43.27940045339545
43.27939725860574
43.27939768470111
43.279404989994134
43.27940455912557
43.27939696562339
43.27939650631225
43.279400110411075
43.279397393132285
43.27940142966298
43.27940264773025
43.2794008673057
43.27939657432751
43.27939926400256
43.27939613693894
43.27939740246711
43.27940534108632
43.27940877845816
43.27944239990404
43.27975387927603
43.28164293251842
43.29016102563412
43.323370977618254
43.44372265019604
43.455149242917344
43.415570974253
43.456620354716506
43.427946972278164
43.408566502358724
43.45680831307004
43.4295947464924
43.421259304060754
43.407029200010356
43.429807162299255
43.42296932349268
43.41979817763564
43.40677723355151
43.42319084203626
43.421524010894075
43.41955987023664
43.40674453370826
43.42174797819001
43.42128873432887
43.419528598347654
43.40674094180497
43.42151319659081
43.42125785358496
43.419525104199124
43.40674010463425
43.42148239709758
43.421254379221864
43.41952473125593
43.40674005128841
43.42147893790866
43.421254024690825
43.419524712448265
43.406740296800876
43.42147859076215
43.42125399239728
43.41952473958008
43.4067401467351
43.421478561304525
43.42125399179696
43.41952473747756
43.406740600570345
43.4214785611577
43.421253991725905
43.41952478814113
43.4067409451344
43.421478562653306
43.421253997300596
43.4195248296117
43.40674072942039
43.42147856492409
43.42125400190088
43.41952480692436
43.40674038340376
43.42147856664201
43.42125399972571
43.41952477321752
43.406740622215466
43.42147856666577
43.42125399653116
43.41952479254394
43.406740420257734
43.421478566153894
43.421253998320424
43.419524778646064
43.40674046305196
43.42147856652343
43.421253997381086
43.41952478096823
43.40674102632806
43.421478566248766
43.42125399786556
43.41952482449716
43.40674105951632
43.42147856611797
43.42125400186109
43.4195248247579
43.40674052414215
43.42147856663064